2
Lattice="  1.500000   0.000000   0.000000  0.000000   1.500000   0.000000  0.000000   0.000000   1.500000" Properties=species:S:1:pos:R:3:index:I:1 Time=0.0
W     0.0000000000    0.0000000000    0.0000000000  0  0
H     1.5000000000    0.0000000000    0.0000000000  1  1
