1025
Lattice=" 25.319976   0.000000   0.000000  0.000000  25.319976   0.000000  0.000000   0.000000  25.319976" Properties=species:S:1:pos:R:3:index:I:1 Time=0.0
H     0.7912492500   24.5287267500   24.5287267500  1  0
W    13.4512372500   13.4512372500   13.4512372500  0  1
W    15.0337357500   15.0337357500   15.0337357500  0  2
W    13.4512372500   13.4512372500   16.6162342500  0  3
W    15.0337357500   15.0337357500   18.1987327500  0  4
W    13.4512372500   13.4512372500   19.7812312500  0  5
W    15.0337357500   15.0337357500   21.3637297500  0  6
W    13.4512372500   13.4512372500   22.9462282500  0  7
W    15.0337357500   15.0337357500   24.5287267500  0  8
W    13.4512372500   13.4512372500    0.7912492500  0  9
W    15.0337357500   15.0337357500    2.3737477500  0  10
W    13.4512372500   13.4512372500    3.9562462500  0  11
W    15.0337357500   15.0337357500    5.5387447500  0  12
W    13.4512372500   13.4512372500    7.1212432500  0  13
W    15.0337357500   15.0337357500    8.7037417500  0  14
W    13.4512372500   13.4512372500   10.2862402500  0  15
W    15.0337357500   15.0337357500   11.8687387500  0  16
W    13.4512372500   16.6162342500   13.4512372500  0  17
W    15.0337357500   18.1987327500   15.0337357500  0  18
W    13.4512372500   16.6162342500   16.6162342500  0  19
W    15.0337357500   18.1987327500   18.1987327500  0  20
W    13.4512372500   16.6162342500   19.7812312500  0  21
W    15.0337357500   18.1987327500   21.3637297500  0  22
W    13.4512372500   16.6162342500   22.9462282500  0  23
W    15.0337357500   18.1987327500   24.5287267500  0  24
W    13.4512372500   16.6162342500    0.7912492500  0  25
W    15.0337357500   18.1987327500    2.3737477500  0  26
W    13.4512372500   16.6162342500    3.9562462500  0  27
W    15.0337357500   18.1987327500    5.5387447500  0  28
W    13.4512372500   16.6162342500    7.1212432500  0  29
W    15.0337357500   18.1987327500    8.7037417500  0  30
W    13.4512372500   16.6162342500   10.2862402500  0  31
W    15.0337357500   18.1987327500   11.8687387500  0  32
W    13.4512372500   19.7812312500   13.4512372500  0  33
W    15.0337357500   21.3637297500   15.0337357500  0  34
W    13.4512372500   19.7812312500   16.6162342500  0  35
W    15.0337357500   21.3637297500   18.1987327500  0  36
W    13.4512372500   19.7812312500   19.7812312500  0  37
W    15.0337357500   21.3637297500   21.3637297500  0  38
W    13.4512372500   19.7812312500   22.9462282500  0  39
W    15.0337357500   21.3637297500   24.5287267500  0  40
W    13.4512372500   19.7812312500    0.7912492500  0  41
W    15.0337357500   21.3637297500    2.3737477500  0  42
W    13.4512372500   19.7812312500    3.9562462500  0  43
W    15.0337357500   21.3637297500    5.5387447500  0  44
W    13.4512372500   19.7812312500    7.1212432500  0  45
W    15.0337357500   21.3637297500    8.7037417500  0  46
W    13.4512372500   19.7812312500   10.2862402500  0  47
W    15.0337357500   21.3637297500   11.8687387500  0  48
W    13.4512372500   22.9462282500   13.4512372500  0  49
W    15.0337357500   24.5287267500   15.0337357500  0  50
W    13.4512372500   22.9462282500   16.6162342500  0  51
W    15.0337357500   24.5287267500   18.1987327500  0  52
W    13.4512372500   22.9462282500   19.7812312500  0  53
W    15.0337357500   24.5287267500   21.3637297500  0  54
W    13.4512372500   22.9462282500   22.9462282500  0  55
W    15.0337357500   24.5287267500   24.5287267500  0  56
W    13.4512372500   22.9462282500    0.7912492500  0  57
W    15.0337357500   24.5287267500    2.3737477500  0  58
W    13.4512372500   22.9462282500    3.9562462500  0  59
W    15.0337357500   24.5287267500    5.5387447500  0  60
W    13.4512372500   22.9462282500    7.1212432500  0  61
W    15.0337357500   24.5287267500    8.7037417500  0  62
W    13.4512372500   22.9462282500   10.2862402500  0  63
W    15.0337357500   24.5287267500   11.8687387500  0  64
W    13.4512372500    0.7912492500   13.4512372500  0  65
W    15.0337357500    2.3737477500   15.0337357500  0  66
W    13.4512372500    0.7912492500   16.6162342500  0  67
W    15.0337357500    2.3737477500   18.1987327500  0  68
W    13.4512372500    0.7912492500   19.7812312500  0  69
W    15.0337357500    2.3737477500   21.3637297500  0  70
W    13.4512372500    0.7912492500   22.9462282500  0  71
W    15.0337357500    2.3737477500   24.5287267500  0  72
W    13.4512372500    0.7912492500    0.7912492500  0  73
W    15.0337357500    2.3737477500    2.3737477500  0  74
W    13.4512372500    0.7912492500    3.9562462500  0  75
W    15.0337357500    2.3737477500    5.5387447500  0  76
W    13.4512372500    0.7912492500    7.1212432500  0  77
W    15.0337357500    2.3737477500    8.7037417500  0  78
W    13.4512372500    0.7912492500   10.2862402500  0  79
W    15.0337357500    2.3737477500   11.8687387500  0  80
W    13.4512372500    3.9562462500   13.4512372500  0  81
W    15.0337357500    5.5387447500   15.0337357500  0  82
W    13.4512372500    3.9562462500   16.6162342500  0  83
W    15.0337357500    5.5387447500   18.1987327500  0  84
W    13.4512372500    3.9562462500   19.7812312500  0  85
W    15.0337357500    5.5387447500   21.3637297500  0  86
W    13.4512372500    3.9562462500   22.9462282500  0  87
W    15.0337357500    5.5387447500   24.5287267500  0  88
W    13.4512372500    3.9562462500    0.7912492500  0  89
W    15.0337357500    5.5387447500    2.3737477500  0  90
W    13.4512372500    3.9562462500    3.9562462500  0  91
W    15.0337357500    5.5387447500    5.5387447500  0  92
W    13.4512372500    3.9562462500    7.1212432500  0  93
W    15.0337357500    5.5387447500    8.7037417500  0  94
W    13.4512372500    3.9562462500   10.2862402500  0  95
W    15.0337357500    5.5387447500   11.8687387500  0  96
W    13.4512372500    7.1212432500   13.4512372500  0  97
W    15.0337357500    8.7037417500   15.0337357500  0  98
W    13.4512372500    7.1212432500   16.6162342500  0  99
W    15.0337357500    8.7037417500   18.1987327500  0  100
W    13.4512372500    7.1212432500   19.7812312500  0  101
W    15.0337357500    8.7037417500   21.3637297500  0  102
W    13.4512372500    7.1212432500   22.9462282500  0  103
W    15.0337357500    8.7037417500   24.5287267500  0  104
W    13.4512372500    7.1212432500    0.7912492500  0  105
W    15.0337357500    8.7037417500    2.3737477500  0  106
W    13.4512372500    7.1212432500    3.9562462500  0  107
W    15.0337357500    8.7037417500    5.5387447500  0  108
W    13.4512372500    7.1212432500    7.1212432500  0  109
W    15.0337357500    8.7037417500    8.7037417500  0  110
W    13.4512372500    7.1212432500   10.2862402500  0  111
W    15.0337357500    8.7037417500   11.8687387500  0  112
W    13.4512372500   10.2862402500   13.4512372500  0  113
W    15.0337357500   11.8687387500   15.0337357500  0  114
W    13.4512372500   10.2862402500   16.6162342500  0  115
W    15.0337357500   11.8687387500   18.1987327500  0  116
W    13.4512372500   10.2862402500   19.7812312500  0  117
W    15.0337357500   11.8687387500   21.3637297500  0  118
W    13.4512372500   10.2862402500   22.9462282500  0  119
W    15.0337357500   11.8687387500   24.5287267500  0  120
W    13.4512372500   10.2862402500    0.7912492500  0  121
W    15.0337357500   11.8687387500    2.3737477500  0  122
W    13.4512372500   10.2862402500    3.9562462500  0  123
W    15.0337357500   11.8687387500    5.5387447500  0  124
W    13.4512372500   10.2862402500    7.1212432500  0  125
W    15.0337357500   11.8687387500    8.7037417500  0  126
W    13.4512372500   10.2862402500   10.2862402500  0  127
W    15.0337357500   11.8687387500   11.8687387500  0  128
W    16.6162342500   13.4512372500   13.4512372500  0  129
W    18.1987327500   15.0337357500   15.0337357500  0  130
W    16.6162342500   13.4512372500   16.6162342500  0  131
W    18.1987327500   15.0337357500   18.1987327500  0  132
W    16.6162342500   13.4512372500   19.7812312500  0  133
W    18.1987327500   15.0337357500   21.3637297500  0  134
W    16.6162342500   13.4512372500   22.9462282500  0  135
W    18.1987327500   15.0337357500   24.5287267500  0  136
W    16.6162342500   13.4512372500    0.7912492500  0  137
W    18.1987327500   15.0337357500    2.3737477500  0  138
W    16.6162342500   13.4512372500    3.9562462500  0  139
W    18.1987327500   15.0337357500    5.5387447500  0  140
W    16.6162342500   13.4512372500    7.1212432500  0  141
W    18.1987327500   15.0337357500    8.7037417500  0  142
W    16.6162342500   13.4512372500   10.2862402500  0  143
W    18.1987327500   15.0337357500   11.8687387500  0  144
W    16.6162342500   16.6162342500   13.4512372500  0  145
W    18.1987327500   18.1987327500   15.0337357500  0  146
W    16.6162342500   16.6162342500   16.6162342500  0  147
W    18.1987327500   18.1987327500   18.1987327500  0  148
W    16.6162342500   16.6162342500   19.7812312500  0  149
W    18.1987327500   18.1987327500   21.3637297500  0  150
W    16.6162342500   16.6162342500   22.9462282500  0  151
W    18.1987327500   18.1987327500   24.5287267500  0  152
W    16.6162342500   16.6162342500    0.7912492500  0  153
W    18.1987327500   18.1987327500    2.3737477500  0  154
W    16.6162342500   16.6162342500    3.9562462500  0  155
W    18.1987327500   18.1987327500    5.5387447500  0  156
W    16.6162342500   16.6162342500    7.1212432500  0  157
W    18.1987327500   18.1987327500    8.7037417500  0  158
W    16.6162342500   16.6162342500   10.2862402500  0  159
W    18.1987327500   18.1987327500   11.8687387500  0  160
W    16.6162342500   19.7812312500   13.4512372500  0  161
W    18.1987327500   21.3637297500   15.0337357500  0  162
W    16.6162342500   19.7812312500   16.6162342500  0  163
W    18.1987327500   21.3637297500   18.1987327500  0  164
W    16.6162342500   19.7812312500   19.7812312500  0  165
W    18.1987327500   21.3637297500   21.3637297500  0  166
W    16.6162342500   19.7812312500   22.9462282500  0  167
W    18.1987327500   21.3637297500   24.5287267500  0  168
W    16.6162342500   19.7812312500    0.7912492500  0  169
W    18.1987327500   21.3637297500    2.3737477500  0  170
W    16.6162342500   19.7812312500    3.9562462500  0  171
W    18.1987327500   21.3637297500    5.5387447500  0  172
W    16.6162342500   19.7812312500    7.1212432500  0  173
W    18.1987327500   21.3637297500    8.7037417500  0  174
W    16.6162342500   19.7812312500   10.2862402500  0  175
W    18.1987327500   21.3637297500   11.8687387500  0  176
W    16.6162342500   22.9462282500   13.4512372500  0  177
W    18.1987327500   24.5287267500   15.0337357500  0  178
W    16.6162342500   22.9462282500   16.6162342500  0  179
W    18.1987327500   24.5287267500   18.1987327500  0  180
W    16.6162342500   22.9462282500   19.7812312500  0  181
W    18.1987327500   24.5287267500   21.3637297500  0  182
W    16.6162342500   22.9462282500   22.9462282500  0  183
W    18.1987327500   24.5287267500   24.5287267500  0  184
W    16.6162342500   22.9462282500    0.7912492500  0  185
W    18.1987327500   24.5287267500    2.3737477500  0  186
W    16.6162342500   22.9462282500    3.9562462500  0  187
W    18.1987327500   24.5287267500    5.5387447500  0  188
W    16.6162342500   22.9462282500    7.1212432500  0  189
W    18.1987327500   24.5287267500    8.7037417500  0  190
W    16.6162342500   22.9462282500   10.2862402500  0  191
W    18.1987327500   24.5287267500   11.8687387500  0  192
W    16.6162342500    0.7912492500   13.4512372500  0  193
W    18.1987327500    2.3737477500   15.0337357500  0  194
W    16.6162342500    0.7912492500   16.6162342500  0  195
W    18.1987327500    2.3737477500   18.1987327500  0  196
W    16.6162342500    0.7912492500   19.7812312500  0  197
W    18.1987327500    2.3737477500   21.3637297500  0  198
W    16.6162342500    0.7912492500   22.9462282500  0  199
W    18.1987327500    2.3737477500   24.5287267500  0  200
W    16.6162342500    0.7912492500    0.7912492500  0  201
W    18.1987327500    2.3737477500    2.3737477500  0  202
W    16.6162342500    0.7912492500    3.9562462500  0  203
W    18.1987327500    2.3737477500    5.5387447500  0  204
W    16.6162342500    0.7912492500    7.1212432500  0  205
W    18.1987327500    2.3737477500    8.7037417500  0  206
W    16.6162342500    0.7912492500   10.2862402500  0  207
W    18.1987327500    2.3737477500   11.8687387500  0  208
W    16.6162342500    3.9562462500   13.4512372500  0  209
W    18.1987327500    5.5387447500   15.0337357500  0  210
W    16.6162342500    3.9562462500   16.6162342500  0  211
W    18.1987327500    5.5387447500   18.1987327500  0  212
W    16.6162342500    3.9562462500   19.7812312500  0  213
W    18.1987327500    5.5387447500   21.3637297500  0  214
W    16.6162342500    3.9562462500   22.9462282500  0  215
W    18.1987327500    5.5387447500   24.5287267500  0  216
W    16.6162342500    3.9562462500    0.7912492500  0  217
W    18.1987327500    5.5387447500    2.3737477500  0  218
W    16.6162342500    3.9562462500    3.9562462500  0  219
W    18.1987327500    5.5387447500    5.5387447500  0  220
W    16.6162342500    3.9562462500    7.1212432500  0  221
W    18.1987327500    5.5387447500    8.7037417500  0  222
W    16.6162342500    3.9562462500   10.2862402500  0  223
W    18.1987327500    5.5387447500   11.8687387500  0  224
W    16.6162342500    7.1212432500   13.4512372500  0  225
W    18.1987327500    8.7037417500   15.0337357500  0  226
W    16.6162342500    7.1212432500   16.6162342500  0  227
W    18.1987327500    8.7037417500   18.1987327500  0  228
W    16.6162342500    7.1212432500   19.7812312500  0  229
W    18.1987327500    8.7037417500   21.3637297500  0  230
W    16.6162342500    7.1212432500   22.9462282500  0  231
W    18.1987327500    8.7037417500   24.5287267500  0  232
W    16.6162342500    7.1212432500    0.7912492500  0  233
W    18.1987327500    8.7037417500    2.3737477500  0  234
W    16.6162342500    7.1212432500    3.9562462500  0  235
W    18.1987327500    8.7037417500    5.5387447500  0  236
W    16.6162342500    7.1212432500    7.1212432500  0  237
W    18.1987327500    8.7037417500    8.7037417500  0  238
W    16.6162342500    7.1212432500   10.2862402500  0  239
W    18.1987327500    8.7037417500   11.8687387500  0  240
W    16.6162342500   10.2862402500   13.4512372500  0  241
W    18.1987327500   11.8687387500   15.0337357500  0  242
W    16.6162342500   10.2862402500   16.6162342500  0  243
W    18.1987327500   11.8687387500   18.1987327500  0  244
W    16.6162342500   10.2862402500   19.7812312500  0  245
W    18.1987327500   11.8687387500   21.3637297500  0  246
W    16.6162342500   10.2862402500   22.9462282500  0  247
W    18.1987327500   11.8687387500   24.5287267500  0  248
W    16.6162342500   10.2862402500    0.7912492500  0  249
W    18.1987327500   11.8687387500    2.3737477500  0  250
W    16.6162342500   10.2862402500    3.9562462500  0  251
W    18.1987327500   11.8687387500    5.5387447500  0  252
W    16.6162342500   10.2862402500    7.1212432500  0  253
W    18.1987327500   11.8687387500    8.7037417500  0  254
W    16.6162342500   10.2862402500   10.2862402500  0  255
W    18.1987327500   11.8687387500   11.8687387500  0  256
W    19.7812312500   13.4512372500   13.4512372500  0  257
W    21.3637297500   15.0337357500   15.0337357500  0  258
W    19.7812312500   13.4512372500   16.6162342500  0  259
W    21.3637297500   15.0337357500   18.1987327500  0  260
W    19.7812312500   13.4512372500   19.7812312500  0  261
W    21.3637297500   15.0337357500   21.3637297500  0  262
W    19.7812312500   13.4512372500   22.9462282500  0  263
W    21.3637297500   15.0337357500   24.5287267500  0  264
W    19.7812312500   13.4512372500    0.7912492500  0  265
W    21.3637297500   15.0337357500    2.3737477500  0  266
W    19.7812312500   13.4512372500    3.9562462500  0  267
W    21.3637297500   15.0337357500    5.5387447500  0  268
W    19.7812312500   13.4512372500    7.1212432500  0  269
W    21.3637297500   15.0337357500    8.7037417500  0  270
W    19.7812312500   13.4512372500   10.2862402500  0  271
W    21.3637297500   15.0337357500   11.8687387500  0  272
W    19.7812312500   16.6162342500   13.4512372500  0  273
W    21.3637297500   18.1987327500   15.0337357500  0  274
W    19.7812312500   16.6162342500   16.6162342500  0  275
W    21.3637297500   18.1987327500   18.1987327500  0  276
W    19.7812312500   16.6162342500   19.7812312500  0  277
W    21.3637297500   18.1987327500   21.3637297500  0  278
W    19.7812312500   16.6162342500   22.9462282500  0  279
W    21.3637297500   18.1987327500   24.5287267500  0  280
W    19.7812312500   16.6162342500    0.7912492500  0  281
W    21.3637297500   18.1987327500    2.3737477500  0  282
W    19.7812312500   16.6162342500    3.9562462500  0  283
W    21.3637297500   18.1987327500    5.5387447500  0  284
W    19.7812312500   16.6162342500    7.1212432500  0  285
W    21.3637297500   18.1987327500    8.7037417500  0  286
W    19.7812312500   16.6162342500   10.2862402500  0  287
W    21.3637297500   18.1987327500   11.8687387500  0  288
W    19.7812312500   19.7812312500   13.4512372500  0  289
W    21.3637297500   21.3637297500   15.0337357500  0  290
W    19.7812312500   19.7812312500   16.6162342500  0  291
W    21.3637297500   21.3637297500   18.1987327500  0  292
W    19.7812312500   19.7812312500   19.7812312500  0  293
W    21.3637297500   21.3637297500   21.3637297500  0  294
W    19.7812312500   19.7812312500   22.9462282500  0  295
W    21.3637297500   21.3637297500   24.5287267500  0  296
W    19.7812312500   19.7812312500    0.7912492500  0  297
W    21.3637297500   21.3637297500    2.3737477500  0  298
W    19.7812312500   19.7812312500    3.9562462500  0  299
W    21.3637297500   21.3637297500    5.5387447500  0  300
W    19.7812312500   19.7812312500    7.1212432500  0  301
W    21.3637297500   21.3637297500    8.7037417500  0  302
W    19.7812312500   19.7812312500   10.2862402500  0  303
W    21.3637297500   21.3637297500   11.8687387500  0  304
W    19.7812312500   22.9462282500   13.4512372500  0  305
W    21.3637297500   24.5287267500   15.0337357500  0  306
W    19.7812312500   22.9462282500   16.6162342500  0  307
W    21.3637297500   24.5287267500   18.1987327500  0  308
W    19.7812312500   22.9462282500   19.7812312500  0  309
W    21.3637297500   24.5287267500   21.3637297500  0  310
W    19.7812312500   22.9462282500   22.9462282500  0  311
W    21.3637297500   24.5287267500   24.5287267500  0  312
W    19.7812312500   22.9462282500    0.7912492500  0  313
W    21.3637297500   24.5287267500    2.3737477500  0  314
W    19.7812312500   22.9462282500    3.9562462500  0  315
W    21.3637297500   24.5287267500    5.5387447500  0  316
W    19.7812312500   22.9462282500    7.1212432500  0  317
W    21.3637297500   24.5287267500    8.7037417500  0  318
W    19.7812312500   22.9462282500   10.2862402500  0  319
W    21.3637297500   24.5287267500   11.8687387500  0  320
W    19.7812312500    0.7912492500   13.4512372500  0  321
W    21.3637297500    2.3737477500   15.0337357500  0  322
W    19.7812312500    0.7912492500   16.6162342500  0  323
W    21.3637297500    2.3737477500   18.1987327500  0  324
W    19.7812312500    0.7912492500   19.7812312500  0  325
W    21.3637297500    2.3737477500   21.3637297500  0  326
W    19.7812312500    0.7912492500   22.9462282500  0  327
W    21.3637297500    2.3737477500   24.5287267500  0  328
W    19.7812312500    0.7912492500    0.7912492500  0  329
W    21.3637297500    2.3737477500    2.3737477500  0  330
W    19.7812312500    0.7912492500    3.9562462500  0  331
W    21.3637297500    2.3737477500    5.5387447500  0  332
W    19.7812312500    0.7912492500    7.1212432500  0  333
W    21.3637297500    2.3737477500    8.7037417500  0  334
W    19.7812312500    0.7912492500   10.2862402500  0  335
W    21.3637297500    2.3737477500   11.8687387500  0  336
W    19.7812312500    3.9562462500   13.4512372500  0  337
W    21.3637297500    5.5387447500   15.0337357500  0  338
W    19.7812312500    3.9562462500   16.6162342500  0  339
W    21.3637297500    5.5387447500   18.1987327500  0  340
W    19.7812312500    3.9562462500   19.7812312500  0  341
W    21.3637297500    5.5387447500   21.3637297500  0  342
W    19.7812312500    3.9562462500   22.9462282500  0  343
W    21.3637297500    5.5387447500   24.5287267500  0  344
W    19.7812312500    3.9562462500    0.7912492500  0  345
W    21.3637297500    5.5387447500    2.3737477500  0  346
W    19.7812312500    3.9562462500    3.9562462500  0  347
W    21.3637297500    5.5387447500    5.5387447500  0  348
W    19.7812312500    3.9562462500    7.1212432500  0  349
W    21.3637297500    5.5387447500    8.7037417500  0  350
W    19.7812312500    3.9562462500   10.2862402500  0  351
W    21.3637297500    5.5387447500   11.8687387500  0  352
W    19.7812312500    7.1212432500   13.4512372500  0  353
W    21.3637297500    8.7037417500   15.0337357500  0  354
W    19.7812312500    7.1212432500   16.6162342500  0  355
W    21.3637297500    8.7037417500   18.1987327500  0  356
W    19.7812312500    7.1212432500   19.7812312500  0  357
W    21.3637297500    8.7037417500   21.3637297500  0  358
W    19.7812312500    7.1212432500   22.9462282500  0  359
W    21.3637297500    8.7037417500   24.5287267500  0  360
W    19.7812312500    7.1212432500    0.7912492500  0  361
W    21.3637297500    8.7037417500    2.3737477500  0  362
W    19.7812312500    7.1212432500    3.9562462500  0  363
W    21.3637297500    8.7037417500    5.5387447500  0  364
W    19.7812312500    7.1212432500    7.1212432500  0  365
W    21.3637297500    8.7037417500    8.7037417500  0  366
W    19.7812312500    7.1212432500   10.2862402500  0  367
W    21.3637297500    8.7037417500   11.8687387500  0  368
W    19.7812312500   10.2862402500   13.4512372500  0  369
W    21.3637297500   11.8687387500   15.0337357500  0  370
W    19.7812312500   10.2862402500   16.6162342500  0  371
W    21.3637297500   11.8687387500   18.1987327500  0  372
W    19.7812312500   10.2862402500   19.7812312500  0  373
W    21.3637297500   11.8687387500   21.3637297500  0  374
W    19.7812312500   10.2862402500   22.9462282500  0  375
W    21.3637297500   11.8687387500   24.5287267500  0  376
W    19.7812312500   10.2862402500    0.7912492500  0  377
W    21.3637297500   11.8687387500    2.3737477500  0  378
W    19.7812312500   10.2862402500    3.9562462500  0  379
W    21.3637297500   11.8687387500    5.5387447500  0  380
W    19.7812312500   10.2862402500    7.1212432500  0  381
W    21.3637297500   11.8687387500    8.7037417500  0  382
W    19.7812312500   10.2862402500   10.2862402500  0  383
W    21.3637297500   11.8687387500   11.8687387500  0  384
W    22.9462282500   13.4512372500   13.4512372500  0  385
W    24.5287267500   15.0337357500   15.0337357500  0  386
W    22.9462282500   13.4512372500   16.6162342500  0  387
W    24.5287267500   15.0337357500   18.1987327500  0  388
W    22.9462282500   13.4512372500   19.7812312500  0  389
W    24.5287267500   15.0337357500   21.3637297500  0  390
W    22.9462282500   13.4512372500   22.9462282500  0  391
W    24.5287267500   15.0337357500   24.5287267500  0  392
W    22.9462282500   13.4512372500    0.7912492500  0  393
W    24.5287267500   15.0337357500    2.3737477500  0  394
W    22.9462282500   13.4512372500    3.9562462500  0  395
W    24.5287267500   15.0337357500    5.5387447500  0  396
W    22.9462282500   13.4512372500    7.1212432500  0  397
W    24.5287267500   15.0337357500    8.7037417500  0  398
W    22.9462282500   13.4512372500   10.2862402500  0  399
W    24.5287267500   15.0337357500   11.8687387500  0  400
W    22.9462282500   16.6162342500   13.4512372500  0  401
W    24.5287267500   18.1987327500   15.0337357500  0  402
W    22.9462282500   16.6162342500   16.6162342500  0  403
W    24.5287267500   18.1987327500   18.1987327500  0  404
W    22.9462282500   16.6162342500   19.7812312500  0  405
W    24.5287267500   18.1987327500   21.3637297500  0  406
W    22.9462282500   16.6162342500   22.9462282500  0  407
W    24.5287267500   18.1987327500   24.5287267500  0  408
W    22.9462282500   16.6162342500    0.7912492500  0  409
W    24.5287267500   18.1987327500    2.3737477500  0  410
W    22.9462282500   16.6162342500    3.9562462500  0  411
W    24.5287267500   18.1987327500    5.5387447500  0  412
W    22.9462282500   16.6162342500    7.1212432500  0  413
W    24.5287267500   18.1987327500    8.7037417500  0  414
W    22.9462282500   16.6162342500   10.2862402500  0  415
W    24.5287267500   18.1987327500   11.8687387500  0  416
W    22.9462282500   19.7812312500   13.4512372500  0  417
W    24.5287267500   21.3637297500   15.0337357500  0  418
W    22.9462282500   19.7812312500   16.6162342500  0  419
W    24.5287267500   21.3637297500   18.1987327500  0  420
W    22.9462282500   19.7812312500   19.7812312500  0  421
W    24.5287267500   21.3637297500   21.3637297500  0  422
W    22.9462282500   19.7812312500   22.9462282500  0  423
W    24.5287267500   21.3637297500   24.5287267500  0  424
W    22.9462282500   19.7812312500    0.7912492500  0  425
W    24.5287267500   21.3637297500    2.3737477500  0  426
W    22.9462282500   19.7812312500    3.9562462500  0  427
W    24.5287267500   21.3637297500    5.5387447500  0  428
W    22.9462282500   19.7812312500    7.1212432500  0  429
W    24.5287267500   21.3637297500    8.7037417500  0  430
W    22.9462282500   19.7812312500   10.2862402500  0  431
W    24.5287267500   21.3637297500   11.8687387500  0  432
W    22.9462282500   22.9462282500   13.4512372500  0  433
W    24.5287267500   24.5287267500   15.0337357500  0  434
W    22.9462282500   22.9462282500   16.6162342500  0  435
W    24.5287267500   24.5287267500   18.1987327500  0  436
W    22.9462282500   22.9462282500   19.7812312500  0  437
W    24.5287267500   24.5287267500   21.3637297500  0  438
W    22.9462282500   22.9462282500   22.9462282500  0  439
W    24.5287267500   24.5287267500   24.5287267500  0  440
W    22.9462282500   22.9462282500    0.7912492500  0  441
W    24.5287267500   24.5287267500    2.3737477500  0  442
W    22.9462282500   22.9462282500    3.9562462500  0  443
W    24.5287267500   24.5287267500    5.5387447500  0  444
W    22.9462282500   22.9462282500    7.1212432500  0  445
W    24.5287267500   24.5287267500    8.7037417500  0  446
W    22.9462282500   22.9462282500   10.2862402500  0  447
W    24.5287267500   24.5287267500   11.8687387500  0  448
W    22.9462282500    0.7912492500   13.4512372500  0  449
W    24.5287267500    2.3737477500   15.0337357500  0  450
W    22.9462282500    0.7912492500   16.6162342500  0  451
W    24.5287267500    2.3737477500   18.1987327500  0  452
W    22.9462282500    0.7912492500   19.7812312500  0  453
W    24.5287267500    2.3737477500   21.3637297500  0  454
W    22.9462282500    0.7912492500   22.9462282500  0  455
W    24.5287267500    2.3737477500   24.5287267500  0  456
W    22.9462282500    0.7912492500    0.7912492500  0  457
W    24.5287267500    2.3737477500    2.3737477500  0  458
W    22.9462282500    0.7912492500    3.9562462500  0  459
W    24.5287267500    2.3737477500    5.5387447500  0  460
W    22.9462282500    0.7912492500    7.1212432500  0  461
W    24.5287267500    2.3737477500    8.7037417500  0  462
W    22.9462282500    0.7912492500   10.2862402500  0  463
W    24.5287267500    2.3737477500   11.8687387500  0  464
W    22.9462282500    3.9562462500   13.4512372500  0  465
W    24.5287267500    5.5387447500   15.0337357500  0  466
W    22.9462282500    3.9562462500   16.6162342500  0  467
W    24.5287267500    5.5387447500   18.1987327500  0  468
W    22.9462282500    3.9562462500   19.7812312500  0  469
W    24.5287267500    5.5387447500   21.3637297500  0  470
W    22.9462282500    3.9562462500   22.9462282500  0  471
W    24.5287267500    5.5387447500   24.5287267500  0  472
W    22.9462282500    3.9562462500    0.7912492500  0  473
W    24.5287267500    5.5387447500    2.3737477500  0  474
W    22.9462282500    3.9562462500    3.9562462500  0  475
W    24.5287267500    5.5387447500    5.5387447500  0  476
W    22.9462282500    3.9562462500    7.1212432500  0  477
W    24.5287267500    5.5387447500    8.7037417500  0  478
W    22.9462282500    3.9562462500   10.2862402500  0  479
W    24.5287267500    5.5387447500   11.8687387500  0  480
W    22.9462282500    7.1212432500   13.4512372500  0  481
W    24.5287267500    8.7037417500   15.0337357500  0  482
W    22.9462282500    7.1212432500   16.6162342500  0  483
W    24.5287267500    8.7037417500   18.1987327500  0  484
W    22.9462282500    7.1212432500   19.7812312500  0  485
W    24.5287267500    8.7037417500   21.3637297500  0  486
W    22.9462282500    7.1212432500   22.9462282500  0  487
W    24.5287267500    8.7037417500   24.5287267500  0  488
W    22.9462282500    7.1212432500    0.7912492500  0  489
W    24.5287267500    8.7037417500    2.3737477500  0  490
W    22.9462282500    7.1212432500    3.9562462500  0  491
W    24.5287267500    8.7037417500    5.5387447500  0  492
W    22.9462282500    7.1212432500    7.1212432500  0  493
W    24.5287267500    8.7037417500    8.7037417500  0  494
W    22.9462282500    7.1212432500   10.2862402500  0  495
W    24.5287267500    8.7037417500   11.8687387500  0  496
W    22.9462282500   10.2862402500   13.4512372500  0  497
W    24.5287267500   11.8687387500   15.0337357500  0  498
W    22.9462282500   10.2862402500   16.6162342500  0  499
W    24.5287267500   11.8687387500   18.1987327500  0  500
W    22.9462282500   10.2862402500   19.7812312500  0  501
W    24.5287267500   11.8687387500   21.3637297500  0  502
W    22.9462282500   10.2862402500   22.9462282500  0  503
W    24.5287267500   11.8687387500   24.5287267500  0  504
W    22.9462282500   10.2862402500    0.7912492500  0  505
W    24.5287267500   11.8687387500    2.3737477500  0  506