2
Lattice=" 10.000000   0.000000   0.000000  0.000000  10.000000   0.000000  0.000000   0.000000  10.000000" Properties=species:S:1:pos:R:3:index:I:1 Time=0.0
Y     0.0000000000    0.0000000000    0.0000000000  0  0
Fe     2.0000000000    0.0000000000    0.0000000000  1  1
