2
Lattice="  4.038314   0.000000   0.000000  0.000000   4.038314   0.000000  0.000000   0.000000   4.038314" Properties=species:S:1:pos:R:3:index:I:1 Time=0.0
Y     0.0000000000    0.0000000000    0.0000000000  0  0
Y     2.0191571663    2.0191571663    2.0191571663  0  1
