1
Lattice=" -2.019157   2.019157   2.019157  2.019157  -2.019157   2.019157  2.019157   2.019157  -2.019157" Properties=species:S:1:pos:R:3:index:I:1 Time=0.0
Y     0.0000000000    0.0000000000    0.0000000000  0  0
