4
Lattice="  3.593970   0.000000   0.000000 -1.796985   3.112469   0.000000  0.000000   0.000000  11.555600" Properties=species:S:1:pos:R:3:index:I:1 Time=0.0
Y     0.0000000000    0.0000000000    0.0000000000  0  0
Y     0.0000000000    0.0000000000    5.7778000000  0  1
Y    -0.0000000000    2.0749795470    8.6667000000  0  2
Y     1.7969850000    1.0374897735    2.8889000000  0  3
