2
Lattice="  0.000000   3.512148   3.512148  3.512148   0.000000   3.512148  3.512148   3.512148   0.000000" Properties=species:S:1:pos:R:3:index:I:1 Time=0.0
Y     3.5121476000    3.5121476000    3.5121476000  0  0
Y     5.2682214000    5.2682214000    5.2682214000  0  1
