4
Lattice="  5.055682   0.000000   0.000000  0.000000   5.055682   0.000000  0.000000   0.000000   5.055682" Properties=species:S:1:pos:R:3:index:I:1 Time=0.0
Y     0.0000000000    0.0000000000    0.0000000000  0  0
Y     0.0000000000    2.5278412300    2.5278412300  0  1
Y     2.5278412300    0.0000000000    2.5278412300  0  2
Y     2.5278412300    2.5278412300    0.0000000000  0  3
