2
Lattice="  3.653600   0.000000   0.000000 -1.826800   3.164110   0.000000  0.000000   0.000000   5.669600" Properties=species:S:1:pos:R:3:index:I:1 Time=0.0
Y    -0.0000000000    2.1094069435    4.2522000000  0  0
Y     1.8268000000    1.0547034718    1.4174000000  0  1
