9
Lattice="  3.613810   0.000000   0.000000 -1.806905   3.129651   0.000000  0.000000   0.000000  25.829400" Properties=species:S:1:pos:R:3:index:I:1 Time=0.0
Y     0.0000000000    0.0000000000    0.0000000000  0  0
Y     1.8069050002    1.0432170880    8.6097999991  0  1
Y    -0.0000000002    2.0864341764   17.2196000009  0  2
Y     0.0000000000    0.0000000000    5.7302523900  0  3
Y     0.0000000000    0.0000000000   20.0991476100  0  4
Y     1.8069050002    1.0432170880   14.3400523891  0  5
Y     1.8069050002    1.0432170880    2.8795476091  0  6
Y    -0.0000000002    2.0864341764   22.9498523909  0  7
Y    -0.0000000002    2.0864341764   11.4893476109  0  8
