2
Lattice="  2.935000   0.000000   0.000000  0.000000   2.935000   0.000000  0.000000   0.000000   2.935000" Properties=species:S:1:pos:R:3:index:I:1 Time=0.0
Y     2.9350000000    0.0000000000    0.0000000000  0  0
Y     0.0000000000    0.0000000000    0.0000000000  0  1
